<?xml version="1.0" encoding="UTF-8"?>

<!-- generated on 土  5/11 12:00:37 2019 by SUMO gui Version 0.32.0
<?xml version="1.0" encoding="UTF-8"?>

<configuration xmlns:xsi="http://www.w3.org/2001/XMLSchema-instance" xsi:noNamespaceSchemaLocation="http://sumo.dlr.de/xsd/sumoConfiguration.xsd">

    <input>
        <net-file value="exam1no.net.xml"/>
        <route-files value="exam1no.rou.xml"/>
    </input>

    <output>
        <queue-output value="queue.xml"/>
    </output>

    <time>
        <begin value="0"/>
        <end value="6000"/>
    </time>

    <traci_server>
        <remote-port value="55570"/>
    </traci_server>

    <gui_only>
        <gui-settings-file value="exam1.settings.xml"/>
    </gui_only>

</configuration>
-->

<queue-export xmlns:xsi="http://www.w3.org/2001/XMLSchema-instance" xsi:noNamespaceSchemaLocation="http://sumo.dlr.de/xsd/queue_file.xsd">
    <data timestep="0.00">
        <lanes/>
    </data>
    <data timestep="1.00">
        <lanes/>
    </data>
    <data timestep="2.00">
        <lanes/>
    </data>
    <data timestep="3.00">
        <lanes/>
    </data>
    <data timestep="4.00">
        <lanes/>
    </data>
    <data timestep="5.00">
        <lanes/>
    </data>
    <data timestep="6.00">
        <lanes/>
    </data>
    <data timestep="7.00">
        <lanes/>
    </data>
    <data timestep="8.00">
        <lanes/>
    </data>
    <data timestep="9.00">
        <lanes/>
    </data>
    <data timestep="10.00">
        <lanes/>
    </data>
    <data timestep="11.00">
        <lanes/>
    </data>
    <data timestep="12.00">
        <lanes>
            <lane id="AuptoA_0" queueing_time="0.00" queueing_length="0.00" queueing_length_experimental="5.23"/>
        </lanes>
    </data>
    <data timestep="13.00">
        <lanes>
            <lane id="AuptoA_0" queueing_time="0.00" queueing_length="0.00" queueing_length_experimental="5.12"/>
        </lanes>
    </data>
    <data timestep="14.00">
        <lanes>
            <lane id="AuptoA_0" queueing_time="1.00" queueing_length="5.10" queueing_length_experimental="5.10"/>
        </lanes>
    </data>
    <data timestep="15.00">
        <lanes>
            <lane id="AuptoA_1" queueing_time="0.00" queueing_length="0.00" queueing_length_experimental="5.20"/>
        </lanes>
    </data>
    <data timestep="16.00">
        <lanes>
            <lane id="AuptoA_1" queueing_time="1.00" queueing_length="5.11" queueing_length_experimental="5.11"/>
        </lanes>
    </data>
    <data timestep="17.00">
        <lanes/>
    </data>
    <data timestep="18.00">
        <lanes/>
    </data>
    <data timestep="19.00">
        <lanes/>
    </data>
    <data timestep="20.00">
        <lanes>
            <lane id="AuptoA_0" queueing_time="1.00" queueing_length="5.11" queueing_length_experimental="5.11"/>
        </lanes>
    </data>
    <data timestep="21.00">
        <lanes/>
    </data>
    <data timestep="22.00">
        <lanes/>
    </data>
    <data timestep="23.00">
        <lanes/>
    </data>
    <data timestep="24.00">
        <lanes/>
    </data>
    <data timestep="25.00">
        <lanes/>
    </data>
    <data timestep="26.00">
        <lanes>
            <lane id="AuptoA_0" queueing_time="0.00" queueing_length="0.00" queueing_length_experimental="5.52"/>
        </lanes>
    </data>
    <data timestep="27.00">
        <lanes>
            <lane id="AuptoA_0" queueing_time="0.00" queueing_length="0.00" queueing_length_experimental="5.11"/>
        </lanes>
    </data>
    <data timestep="28.00">
        <lanes>
            <lane id="AuptoA_0" queueing_time="1.00" queueing_length="5.10" queueing_length_experimental="5.10"/>
        </lanes>
    </data>
    <data timestep="29.00">
        <lanes/>
    </data>
    <data timestep="30.00">
        <lanes/>
    </data>
    <data timestep="31.00">
        <lanes>
            <lane id="AuptoA_1" queueing_time="0.00" queueing_length="0.00" queueing_length_experimental="5.18"/>
        </lanes>
    </data>
    <data timestep="32.00">
        <lanes>
            <lane id="AuptoA_1" queueing_time="1.00" queueing_length="5.11" queueing_length_experimental="5.11"/>
        </lanes>
    </data>
    <data timestep="33.00">
        <lanes>
            <lane id="AuptoA_0" queueing_time="1.00" queueing_length="5.13" queueing_length_experimental="5.13"/>
        </lanes>
    </data>
    <data timestep="34.00">
        <lanes>
            <lane id="BtoA_0" queueing_time="0.00" queueing_length="0.00" queueing_length_experimental="5.35"/>
        </lanes>
    </data>
    <data timestep="35.00">
        <lanes>
            <lane id="BtoA_0" queueing_time="0.00" queueing_length="0.00" queueing_length_experimental="5.12"/>
        </lanes>
    </data>
    <data timestep="36.00">
        <lanes>
            <lane id="BtoA_0" queueing_time="1.00" queueing_length="5.10" queueing_length_experimental="12.70"/>
        </lanes>
    </data>
    <data timestep="37.00">
        <lanes>
            <lane id="BtoA_0" queueing_time="1.00" queueing_length="12.63" queueing_length_experimental="12.63"/>
        </lanes>
    </data>
    <data timestep="38.00">
        <lanes>
            <lane id="BtoA_0" queueing_time="0.00" queueing_length="0.00" queueing_length_experimental="20.25"/>
        </lanes>
    </data>
    <data timestep="39.00">
        <lanes>
            <lane id="BtoA_0" queueing_time="0.00" queueing_length="0.00" queueing_length_experimental="19.37"/>
        </lanes>
    </data>
    <data timestep="40.00">
        <lanes>
            <lane id="AuptoA_0" queueing_time="0.00" queueing_length="0.00" queueing_length_experimental="5.11"/>
        </lanes>
    </data>
    <data timestep="41.00">
        <lanes>
            <lane id="AuptoA_0" queueing_time="1.00" queueing_length="5.10" queueing_length_experimental="5.10"/>
            <lane id="BtoA_0" queueing_time="0.00" queueing_length="0.00" queueing_length_experimental="5.13"/>
        </lanes>
    </data>
    <data timestep="42.00">
        <lanes>
            <lane id="BtoA_0" queueing_time="1.00" queueing_length="5.11" queueing_length_experimental="5.11"/>
        </lanes>
    </data>
    <data timestep="43.00">
        <lanes>
            <lane id="BtoA_0" queueing_time="0.00" queueing_length="0.00" queueing_length_experimental="12.81"/>
        </lanes>
    </data>
    <data timestep="44.00">
        <lanes>
            <lane id="BtoA_0" queueing_time="0.00" queueing_length="0.00" queueing_length_experimental="20.49"/>
        </lanes>
    </data>
    <data timestep="45.00">
        <lanes>
            <lane id="BtoA_0" queueing_time="0.00" queueing_length="0.00" queueing_length_experimental="28.18"/>
        </lanes>
    </data>
    <data timestep="46.00">
        <lanes>
            <lane id="BtoA_0" queueing_time="0.00" queueing_length="0.00" queueing_length_experimental="27.57"/>
        </lanes>
    </data>
    <data timestep="47.00">
        <lanes>
            <lane id="BtoA_0" queueing_time="0.00" queueing_length="0.00" queueing_length_experimental="35.13"/>
        </lanes>
    </data>
    <data timestep="48.00">
        <lanes>
            <lane id="AuptoA_0" queueing_time="0.00" queueing_length="0.00" queueing_length_experimental="5.11"/>
            <lane id="BtoA_0" queueing_time="1.00" queueing_length="5.13" queueing_length_experimental="12.85"/>
        </lanes>
    </data>
    <data timestep="49.00">
        <lanes>
            <lane id="AuptoA_0" queueing_time="1.00" queueing_length="5.11" queueing_length_experimental="5.11"/>
            <lane id="BtoA_0" queueing_time="0.00" queueing_length="0.00" queueing_length_experimental="12.74"/>
        </lanes>
    </data>
    <data timestep="50.00">
        <lanes>
            <lane id="BtoA_0" queueing_time="0.00" queueing_length="0.00" queueing_length_experimental="20.28"/>
        </lanes>
    </data>
    <data timestep="51.00">
        <lanes>
            <lane id="AuptoA_1" queueing_time="0.00" queueing_length="0.00" queueing_length_experimental="5.14"/>
            <lane id="BtoA_0" queueing_time="0.00" queueing_length="0.00" queueing_length_experimental="28.12"/>
        </lanes>
    </data>
    <data timestep="52.00">
        <lanes>
            <lane id="AuptoA_1" queueing_time="1.00" queueing_length="5.12" queueing_length_experimental="5.12"/>
            <lane id="BtoA_0" queueing_time="0.00" queueing_length="0.00" queueing_length_experimental="36.15"/>
        </lanes>
    </data>
    <data timestep="53.00">
        <lanes>
            <lane id="BtoA_0" queueing_time="0.00" queueing_length="0.00" queueing_length_experimental="35.14"/>
        </lanes>
    </data>
    <data timestep="54.00">
        <lanes>
            <lane id="BtoA_0" queueing_time="0.00" queueing_length="0.00" queueing_length_experimental="42.68"/>
        </lanes>
    </data>
    <data timestep="55.00">
        <lanes>
            <lane id="AuptoA_0" queueing_time="0.00" queueing_length="0.00" queueing_length_experimental="5.13"/>
            <lane id="BtoA_0" queueing_time="1.00" queueing_length="5.11" queueing_length_experimental="50.42"/>
        </lanes>
    </data>
    <data timestep="56.00">
        <lanes>
            <lane id="AuptoA_0" queueing_time="1.00" queueing_length="5.11" queueing_length_experimental="5.11"/>
            <lane id="BtoA_0" queueing_time="2.00" queueing_length="5.10" queueing_length_experimental="58.18"/>
        </lanes>
    </data>
    <data timestep="57.00">
        <lanes>
            <lane id="BtoA_0" queueing_time="1.00" queueing_length="12.65" queueing_length_experimental="46.78"/>
        </lanes>
    </data>
    <data timestep="58.00">
        <lanes>
            <lane id="BtoA_0" queueing_time="0.00" queueing_length="0.00" queueing_length_experimental="55.12"/>
        </lanes>
    </data>
    <data timestep="59.00">
        <lanes>
            <lane id="BtoA_0" queueing_time="0.00" queueing_length="0.00" queueing_length_experimental="63.29"/>
        </lanes>
    </data>
    <data timestep="60.00">
        <lanes>
            <lane id="BtoA_0" queueing_time="0.00" queueing_length="0.00" queueing_length_experimental="52.36"/>
        </lanes>
    </data>
    <data timestep="61.00">
        <lanes>
            <lane id="BtoA_0" queueing_time="0.00" queueing_length="0.00" queueing_length_experimental="51.41"/>
        </lanes>
    </data>
    <data timestep="62.00">
        <lanes>
            <lane id="BtoA_0" queueing_time="1.00" queueing_length="5.11" queueing_length_experimental="59.20"/>
        </lanes>
    </data>
    <data timestep="63.00">
        <lanes>
            <lane id="AuptoA_0" queueing_time="0.00" queueing_length="0.00" queueing_length_experimental="5.13"/>
            <lane id="BtoA_0" queueing_time="0.00" queueing_length="0.00" queueing_length_experimental="66.85"/>
        </lanes>
    </data>
    <data timestep="64.00">
        <lanes>
            <lane id="AuptoA_0" queueing_time="1.00" queueing_length="5.11" queueing_length_experimental="5.11"/>
            <lane id="BtoA_0" queueing_time="0.00" queueing_length="0.00" queueing_length_experimental="65.99"/>
        </lanes>
    </data>
    <data timestep="65.00">
        <lanes>
            <lane id="BtoA_0" queueing_time="0.00" queueing_length="0.00" queueing_length_experimental="73.74"/>
        </lanes>
    </data>
    <data timestep="66.00">
        <lanes>
            <lane id="AuptoA_1" queueing_time="0.00" queueing_length="0.00" queueing_length_experimental="5.17"/>
            <lane id="BtoA_0" queueing_time="0.00" queueing_length="0.00" queueing_length_experimental="73.23"/>
        </lanes>
    </data>
    <data timestep="67.00">
        <lanes>
            <lane id="AuptoA_1" queueing_time="1.00" queueing_length="5.12" queueing_length_experimental="5.12"/>
            <lane id="BtoA_0" queueing_time="0.00" queueing_length="0.00" queueing_length_experimental="80.88"/>
        </lanes>
    </data>
    <data timestep="68.00">
        <lanes>
            <lane id="BtoA_0" queueing_time="0.00" queueing_length="0.00" queueing_length_experimental="80.25"/>
        </lanes>
    </data>
    <data timestep="69.00">
        <lanes>
            <lane id="AuptoA_0" queueing_time="1.00" queueing_length="5.13" queueing_length_experimental="5.13"/>
            <lane id="BtoA_0" queueing_time="1.00" queueing_length="5.11" queueing_length_experimental="88.19"/>
        </lanes>
    </data>
    <data timestep="70.00">
        <lanes>
            <lane id="BtoA_0" queueing_time="2.00" queueing_length="5.10" queueing_length_experimental="87.20"/>
        </lanes>
    </data>
    <data timestep="71.00">
        <lanes>
            <lane id="BtoA_0" queueing_time="3.00" queueing_length="12.61" queueing_length_experimental="95.15"/>
        </lanes>
    </data>
    <data timestep="72.00">
        <lanes>
            <lane id="BtoA_0" queueing_time="2.00" queueing_length="20.15" queueing_length_experimental="93.86"/>
        </lanes>
    </data>
    <data timestep="73.00">
        <lanes>
            <lane id="BtoA_0" queueing_time="2.00" queueing_length="27.72" queueing_length_experimental="62.62"/>
        </lanes>
    </data>
    <data timestep="74.00">
        <lanes>
            <lane id="BtoA_0" queueing_time="2.00" queueing_length="27.66" queueing_length_experimental="90.15"/>
        </lanes>
    </data>
    <data timestep="75.00">
        <lanes>
            <lane id="BtoA_0" queueing_time="1.00" queueing_length="35.16" queueing_length_experimental="69.07"/>
        </lanes>
    </data>
    <data timestep="76.00">
        <lanes>
            <lane id="AuptoA_0" queueing_time="0.00" queueing_length="0.00" queueing_length_experimental="5.28"/>
            <lane id="BtoA_0" queueing_time="0.00" queueing_length="0.00" queueing_length_experimental="76.99"/>
        </lanes>
    </data>
    <data timestep="77.00">
        <lanes>
            <lane id="AuptoA_0" queueing_time="0.00" queueing_length="0.00" queueing_length_experimental="5.18"/>
            <lane id="BtoA_0" queueing_time="0.00" queueing_length="0.00" queueing_length_experimental="104.20"/>
        </lanes>
    </data>
    <data timestep="78.00">
        <lanes>
            <lane id="AuptoA_0" queueing_time="1.00" queueing_length="5.12" queueing_length_experimental="5.12"/>
            <lane id="BtoA_0" queueing_time="1.00" queueing_length="5.12" queueing_length_experimental="93.02"/>
        </lanes>
    </data>
    <data timestep="79.00">
        <lanes>
            <lane id="BtoA_0" queueing_time="0.00" queueing_length="0.00" queueing_length_experimental="101.08"/>
        </lanes>
    </data>
    <data timestep="80.00">
        <lanes>
            <lane id="BtoA_0" queueing_time="0.00" queueing_length="0.00" queueing_length_experimental="90.28"/>
        </lanes>
    </data>
    <data timestep="81.00">
        <lanes>
            <lane id="BtoA_0" queueing_time="0.00" queueing_length="0.00" queueing_length_experimental="97.86"/>
        </lanes>
    </data>
    <data timestep="82.00">
        <lanes>
            <lane id="BtoA_0" queueing_time="0.00" queueing_length="0.00" queueing_length_experimental="115.36"/>
        </lanes>
    </data>
    <data timestep="83.00">
        <lanes>
            <lane id="BtoA_0" queueing_time="0.00" queueing_length="0.00" queueing_length_experimental="96.19"/>
        </lanes>
    </data>
    <data timestep="84.00">
        <lanes>
            <lane id="AuptoA_0" queueing_time="1.00" queueing_length="5.16" queueing_length_experimental="5.16"/>
            <lane id="BtoA_0" queueing_time="1.00" queueing_length="5.11" queueing_length_experimental="122.14"/>
        </lanes>
    </data>
    <data timestep="85.00">
        <lanes>
            <lane id="BtoA_0" queueing_time="0.00" queueing_length="0.00" queueing_length_experimental="120.88"/>
        </lanes>
    </data>
    <data timestep="86.00">
        <lanes>
            <lane id="BtoA_0" queueing_time="0.00" queueing_length="0.00" queueing_length_experimental="119.84"/>
        </lanes>
    </data>
    <data timestep="87.00">
        <lanes>
            <lane id="AuptoA_1" queueing_time="0.00" queueing_length="0.00" queueing_length_experimental="5.30"/>
            <lane id="BtoA_0" queueing_time="0.00" queueing_length="0.00" queueing_length_experimental="127.41"/>
        </lanes>
    </data>
    <data timestep="88.00">
        <lanes>
            <lane id="AuptoA_1" queueing_time="0.00" queueing_length="0.00" queueing_length_experimental="5.16"/>
            <lane id="BtoA_0" queueing_time="0.00" queueing_length="0.00" queueing_length_experimental="127.01"/>
        </lanes>
    </data>
    <data timestep="89.00">
        <lanes>
            <lane id="AuptoA_1" queueing_time="1.00" queueing_length="5.12" queueing_length_experimental="5.12"/>
            <lane id="BtoA_0" queueing_time="0.00" queueing_length="0.00" queueing_length_experimental="126.43"/>
        </lanes>
    </data>
    <data timestep="90.00">
        <lanes>
            <lane id="BtoA_0" queueing_time="1.00" queueing_length="5.10" queueing_length_experimental="125.30"/>
        </lanes>
    </data>
    <data timestep="91.00">
        <lanes>
            <lane id="AuptoA_0" queueing_time="1.00" queueing_length="5.11" queueing_length_experimental="5.11"/>
            <lane id="BtoA_0" queueing_time="2.00" queueing_length="12.69" queueing_length_experimental="114.78"/>
        </lanes>
    </data>
    <data timestep="92.00">
        <lanes>
            <lane id="BtoA_0" queueing_time="3.00" queueing_length="20.25" queueing_length_experimental="122.46"/>
        </lanes>
    </data>
    <data timestep="93.00">
        <lanes>
            <lane id="BtoA_0" queueing_time="4.00" queueing_length="20.19" queueing_length_experimental="130.54"/>
        </lanes>
    </data>
    <data timestep="94.00">
        <lanes>
            <lane id="BtoA_0" queueing_time="4.00" queueing_length="20.13" queueing_length_experimental="129.37"/>
        </lanes>
    </data>
    <data timestep="95.00">
        <lanes>
            <lane id="BtoA_0" queueing_time="4.00" queueing_length="20.11" queueing_length_experimental="128.16"/>
        </lanes>
    </data>
    <data timestep="96.00">
        <lanes>
            <lane id="BtoA_0" queueing_time="1.00" queueing_length="27.63" queueing_length_experimental="127.02"/>
        </lanes>
    </data>
    <data timestep="97.00">
        <lanes>
            <lane id="BtoA_0" queueing_time="1.00" queueing_length="35.14" queueing_length_experimental="125.88"/>
        </lanes>
    </data>
    <data timestep="98.00">
        <lanes>
            <lane id="AuptoA_0" queueing_time="0.00" queueing_length="0.00" queueing_length_experimental="5.31"/>
            <lane id="BtoA_0" queueing_time="1.00" queueing_length="42.64" queueing_length_experimental="124.76"/>
        </lanes>
    </data>
    <data timestep="99.00">
        <lanes>
            <lane id="AuptoA_0" queueing_time="0.00" queueing_length="0.00" queueing_length_experimental="5.14"/>
            <lane id="BtoA_0" queueing_time="1.00" queueing_length="50.16" queueing_length_experimental="124.30"/>
        </lanes>
    </data>
    <data timestep="100.00">
        <lanes>
            <lane id="AuptoA_0" queueing_time="1.00" queueing_length="5.11" queueing_length_experimental="5.11"/>
            <lane id="BtoA_0" queueing_time="1.00" queueing_length="12.70" queueing_length_experimental="131.82"/>
        </lanes>
    </data>
    <data timestep="101.00">
        <lanes>
            <lane id="BtoA_0" queueing_time="0.00" queueing_length="0.00" queueing_length_experimental="131.23"/>
        </lanes>
    </data>
    <data timestep="102.00">
        <lanes>
            <lane id="BtoA_0" queueing_time="0.00" queueing_length="0.00" queueing_length_experimental="119.41"/>
        </lanes>
    </data>
    <data timestep="103.00">
        <lanes>
            <lane id="AuptoA_1" queueing_time="1.00" queueing_length="5.10" queueing_length_experimental="5.10"/>
            <lane id="BtoA_0" queueing_time="0.00" queueing_length="0.00" queueing_length_experimental="127.33"/>
        </lanes>
    </data>
    <data timestep="104.00">
        <lanes>
            <lane id="BtoA_0" queueing_time="0.00" queueing_length="0.00" queueing_length_experimental="126.27"/>
        </lanes>
    </data>
    <data timestep="105.00">
        <lanes>
            <lane id="AuptoA_0" queueing_time="0.00" queueing_length="0.00" queueing_length_experimental="5.20"/>
            <lane id="BtoA_0" queueing_time="0.00" queueing_length="0.00" queueing_length_experimental="113.90"/>
        </lanes>
    </data>
    <data timestep="106.00">
        <lanes>
            <lane id="AuptoA_0" queueing_time="1.00" queueing_length="5.10" queueing_length_experimental="5.10"/>
            <lane id="BtoA_0" queueing_time="1.00" queueing_length="5.10" queueing_length_experimental="122.48"/>
        </lanes>
    </data>
    <data timestep="107.00">
        <lanes>
            <lane id="BtoA_0" queueing_time="2.00" queueing_length="5.10" queueing_length_experimental="130.45"/>
        </lanes>
    </data>
    <data timestep="108.00">
        <lanes>
            <lane id="BtoA_0" queueing_time="1.00" queueing_length="12.62" queueing_length_experimental="120.04"/>
        </lanes>
    </data>
    <data timestep="109.00">
        <lanes>
            <lane id="BtoA_0" queueing_time="1.00" queueing_length="20.18" queueing_length_experimental="128.06"/>
        </lanes>
    </data>
    <data timestep="110.00">
        <lanes>
            <lane id="BtoA_0" queueing_time="0.00" queueing_length="0.00" queueing_length_experimental="126.91"/>
        </lanes>
    </data>
    <data timestep="111.00">
        <lanes>
            <lane id="BtoA_0" queueing_time="0.00" queueing_length="0.00" queueing_length_experimental="126.29"/>
        </lanes>
    </data>
    <data timestep="112.00">
        <lanes>
            <lane id="AuptoA_0" queueing_time="0.00" queueing_length="0.00" queueing_length_experimental="5.10"/>
            <lane id="BtoA_0" queueing_time="0.00" queueing_length="0.00" queueing_length_experimental="124.99"/>
        </lanes>
    </data>
    <data timestep="113.00">
        <lanes>
            <lane id="AuptoA_0" queueing_time="1.00" queueing_length="5.10" queueing_length_experimental="5.10"/>
            <lane id="BtoA_0" queueing_time="0.00" queueing_length="0.00" queueing_length_experimental="124.45"/>
        </lanes>
    </data>
    <data timestep="114.00">
        <lanes>
            <lane id="BtoA_0" queueing_time="1.00" queueing_length="5.10" queueing_length_experimental="132.29"/>
        </lanes>
    </data>
    <data timestep="115.00">
        <lanes>
            <lane id="BtoA_0" queueing_time="1.00" queueing_length="12.62" queueing_length_experimental="131.86"/>
        </lanes>
    </data>
    <data timestep="116.00">
        <lanes>
            <lane id="BtoA_0" queueing_time="0.00" queueing_length="0.00" queueing_length_experimental="131.02"/>
        </lanes>
    </data>
    <data timestep="117.00">
        <lanes>
            <lane id="BtoA_0" queueing_time="0.00" queueing_length="0.00" queueing_length_experimental="81.40"/>
        </lanes>
    </data>
    <data timestep="118.00">
        <lanes>
            <lane id="BtoA_0" queueing_time="0.00" queueing_length="0.00" queueing_length_experimental="98.32"/>
        </lanes>
    </data>
    <data timestep="119.00">
        <lanes>
            <lane id="BtoA_0" queueing_time="0.00" queueing_length="0.00" queueing_length_experimental="125.64"/>
        </lanes>
    </data>
    <data timestep="120.00">
        <lanes>
            <lane id="AuptoA_0" queueing_time="0.00" queueing_length="0.00" queueing_length_experimental="5.16"/>
            <lane id="BtoA_0" queueing_time="0.00" queueing_length="0.00" queueing_length_experimental="133.48"/>
        </lanes>
    </data>
    <data timestep="121.00">
        <lanes>
            <lane id="AuptoA_0" queueing_time="1.00" queueing_length="5.13" queueing_length_experimental="5.13"/>
            <lane id="BtoA_0" queueing_time="0.00" queueing_length="0.00" queueing_length_experimental="132.17"/>
        </lanes>
    </data>
    <data timestep="122.00">
        <lanes>
            <lane id="BtoA_0" queueing_time="1.00" queueing_length="5.10" queueing_length_experimental="120.84"/>
        </lanes>
    </data>
    <data timestep="123.00">
        <lanes>
            <lane id="BtoA_0" queueing_time="1.00" queueing_length="12.62" queueing_length_experimental="129.08"/>
        </lanes>
    </data>
    <data timestep="124.00">
        <lanes>
            <lane id="AuptoA_1" queueing_time="0.00" queueing_length="0.00" queueing_length_experimental="5.11"/>
            <lane id="BtoA_0" queueing_time="1.00" queueing_length="20.13" queueing_length_experimental="127.78"/>
        </lanes>
    </data>
    <data timestep="125.00">
        <lanes>
            <lane id="AuptoA_1" queueing_time="1.00" queueing_length="5.11" queueing_length_experimental="5.11"/>
            <lane id="BtoA_0" queueing_time="0.00" queueing_length="0.00" queueing_length_experimental="127.14"/>
        </lanes>
    </data>
    <data timestep="126.00">
        <lanes>
            <lane id="BtoA_0" queueing_time="0.00" queueing_length="0.00" queueing_length_experimental="134.68"/>
        </lanes>
    </data>
    <data timestep="127.00">
        <lanes>
            <lane id="AuptoA_0" queueing_time="0.00" queueing_length="0.00" queueing_length_experimental="5.15"/>
            <lane id="BtoA_0" queueing_time="0.00" queueing_length="0.00" queueing_length_experimental="134.03"/>
        </lanes>
    </data>
    <data timestep="128.00">
        <lanes>
            <lane id="AuptoA_0" queueing_time="1.00" queueing_length="5.11" queueing_length_experimental="5.11"/>
            <lane id="BtoA_0" queueing_time="1.00" queueing_length="5.10" queueing_length_experimental="122.41"/>
        </lanes>
    </data>
    <data timestep="129.00">
        <lanes>
            <lane id="BtoA_0" queueing_time="2.00" queueing_length="5.10" queueing_length_experimental="121.50"/>
        </lanes>
    </data>
    <data timestep="130.00">
        <lanes>
            <lane id="BtoA_0" queueing_time="1.00" queueing_length="12.60" queueing_length_experimental="129.74"/>
        </lanes>
    </data>
    <data timestep="131.00">
        <lanes>
            <lane id="BtoA_0" queueing_time="1.00" queueing_length="20.11" queueing_length_experimental="128.53"/>
        </lanes>
    </data>
    <data timestep="132.00">
        <lanes>
            <lane id="BtoA_0" queueing_time="0.00" queueing_length="0.00" queueing_length_experimental="117.72"/>
        </lanes>
    </data>
    <data timestep="133.00">
        <lanes>
            <lane id="BtoA_0" queueing_time="0.00" queueing_length="0.00" queueing_length_experimental="125.23"/>
        </lanes>
    </data>
    <data timestep="134.00">
        <lanes>
            <lane id="AuptoA_0" queueing_time="0.00" queueing_length="0.00" queueing_length_experimental="5.28"/>
            <lane id="BtoA_0" queueing_time="0.00" queueing_length="0.00" queueing_length_experimental="133.19"/>
        </lanes>
    </data>
    <data timestep="135.00">
        <lanes>
            <lane id="AuptoA_0" queueing_time="1.00" queueing_length="5.19" queueing_length_experimental="5.19"/>
            <lane id="BtoA_0" queueing_time="0.00" queueing_length="0.00" queueing_length_experimental="132.34"/>
        </lanes>
    </data>
    <data timestep="136.00">
        <lanes>
            <lane id="BtoA_0" queueing_time="1.00" queueing_length="5.11" queueing_length_experimental="131.77"/>
        </lanes>
    </data>
    <data timestep="137.00">
        <lanes>
            <lane id="BtoA_0" queueing_time="1.00" queueing_length="12.64" queueing_length_experimental="121.05"/>
        </lanes>
    </data>
    <data timestep="138.00">
        <lanes>
            <lane id="BtoA_0" queueing_time="0.00" queueing_length="0.00" queueing_length_experimental="128.82"/>
        </lanes>
    </data>
    <data timestep="139.00">
        <lanes>
            <lane id="AuptoA_1" queueing_time="0.00" queueing_length="0.00" queueing_length_experimental="5.55"/>
            <lane id="BtoA_0" queueing_time="0.00" queueing_length="0.00" queueing_length_experimental="128.04"/>
        </lanes>
    </data>
    <data timestep="140.00">
        <lanes>
            <lane id="AuptoA_1" queueing_time="0.00" queueing_length="0.00" queueing_length_experimental="5.31"/>
            <lane id="BtoA_0" queueing_time="0.00" queueing_length="0.00" queueing_length_experimental="126.97"/>
        </lanes>
    </data>
    <data timestep="141.00">
        <lanes>
            <lane id="AuptoA_0" queueing_time="0.00" queueing_length="0.00" queueing_length_experimental="5.39"/>
            <lane id="AuptoA_1" queueing_time="0.00" queueing_length="0.00" queueing_length_experimental="5.17"/>
            <lane id="BtoA_0" queueing_time="0.00" queueing_length="0.00" queueing_length_experimental="126.44"/>
        </lanes>
    </data>
    <data timestep="142.00">
        <lanes>
            <lane id="AuptoA_0" queueing_time="0.00" queueing_length="0.00" queueing_length_experimental="5.20"/>
            <lane id="AuptoA_1" queueing_time="1.00" queueing_length="5.13" queueing_length_experimental="5.13"/>
            <lane id="BtoA_0" queueing_time="1.00" queueing_length="5.11" queueing_length_experimental="134.07"/>
        </lanes>
    </data>
    <data timestep="143.00">
        <lanes>
            <lane id="AuptoA_0" queueing_time="1.00" queueing_length="5.10" queueing_length_experimental="5.10"/>
            <lane id="AuptoA_1" queueing_time="2.00" queueing_length="5.11" queueing_length_experimental="5.11"/>
            <lane id="BtoA_0" queueing_time="0.00" queueing_length="0.00" queueing_length_experimental="113.61"/>
        </lanes>
    </data>