<?xml version="1.0" encoding="UTF-8"?>

<!-- generated on ç«  5/28 09:12:28 2019 by SUMO gui Version 0.32.0
<?xml version="1.0" encoding="UTF-8"?>

<configuration xmlns:xsi="http://www.w3.org/2001/XMLSchema-instance" xsi:noNamespaceSchemaLocation="http://sumo.dlr.de/xsd/sumoConfiguration.xsd">

    <input>
        <net-file value="pasubio_buslanes.net.xml"/>
        <route-files value="pasubio.rou.xml"/>
        <additional-files value="pasubio_vtypes.add.xml,pasubio_bus_stops.add.xml,pasubio_busses.rou.xml,pasubio_detectors.add.xml,pasubio_tls.add.xml"/>
    </input>

    <output>
        <tripinfo-output value="tripinfos.xml"/>
    </output>

    <report>
        <log value="sumo_log.txt"/>
        <no-step-log value="true"/>
    </report>

</configuration>
-->

<tripinfos xmlns:xsi="http://www.w3.org/2001/XMLSchema-instance" xsi:noNamespaceSchemaLocation="http://sumo.dlr.de/xsd/tripinfo_file.xsd">
    <tripinfo id="Pertini_20_1" depart="2.00" departLane="63[0]_2" departPos="0.00" departSpeed="0.00" departDelay="0.00" arrival="74.00" arrivalLane="4[1][1][1]_1" arrivalPos="172.70" arrivalSpeed="13.64" duration="72.00" routeLength="889.67" waitSteps="0" timeLoss="7.82" rerouteNo="0" devices="tripinfo_Pertini_20_1" vType="passenger3" speedFactor="1.00" vaporized=""/>
    <tripinfo id="Pertini_20_0" depart="0.00" departLane="63[0]_2" departPos="0.00" departSpeed="0.00" departDelay="0.00" arrival="76.00" arrivalLane="4[1][1][1]_0" arrivalPos="172.70" arrivalSpeed="13.09" duration="76.00" routeLength="889.67" waitSteps="1" timeLoss="11.57" rerouteNo="0" devices="tripinfo_Pertini_20_0" vType="passenger2b" speedFactor="1.00" vaporized=""/>
    <tripinfo id="Pertini_20_2" depart="4.00" departLane="63[0]_1" departPos="0.00" departSpeed="0.00" departDelay="0.00" arrival="76.00" arrivalLane="4[1][1][1]_1" arrivalPos="172.70" arrivalSpeed="13.49" duration="72.00" routeLength="889.67" waitSteps="0" timeLoss="7.57" rerouteNo="0" devices="tripinfo_Pertini_20_2" vType="passenger1" speedFactor="1.00" vaporized=""/>
    <tripinfo id="Prati_Capraia_10_0" depart="0.00" departLane="3[0]_0" departPos="0.00" departSpeed="0.00" departDelay="0.00" arrival="79.00" arrivalLane="10_0" arrivalPos="226.64" arrivalSpeed="12.82" duration="79.00" routeLength="410.85" waitSteps="39" timeLoss="49.13" rerouteNo="0" devices="tripinfo_Prati_Capraia_10_0" vType="passenger1" speedFactor="1.00" vaporized=""/>
    <tripinfo id="Prati_Capraia_10_1" depart="4.00" departLane="3[0]_0" departPos="0.00" departSpeed="0.00" departDelay="0.00" arrival="81.00" arrivalLane="10_0" arrivalPos="226.64" arrivalSpeed="13.55" duration="77.00" routeLength="410.85" waitSteps="37" timeLoss="46.70" rerouteNo="0" devices="tripinfo_Prati_Capraia_10_1" vType="passenger1" speedFactor="1.00" vaporized=""/>
    <tripinfo id="Pertini_20_7" depart="15.00" departLane="63[0]_2" departPos="0.00" departSpeed="0.00" departDelay="0.00" arrival="86.00" arrivalLane="4[1][1][1]_0" arrivalPos="172.70" arrivalSpeed="12.84" duration="71.00" routeLength="889.67" waitSteps="0" timeLoss="6.11" rerouteNo="0" devices="tripinfo_Pertini_20_7" vType="passenger5" speedFactor="1.00" vaporized=""/>
    <tripinfo id="Prati_Capraia_10_7" depart="34.00" departLane="3[0]_0" departPos="0.00" departSpeed="0.00" departDelay="0.00" arrival="86.00" arrivalLane="10_0" arrivalPos="226.64" arrivalSpeed="13.28" duration="52.00" routeLength="410.85" waitSteps="10" timeLoss="21.93" rerouteNo="0" devices="tripinfo_Prati_Capraia_10_7" vType="passenger2b" speedFactor="1.00" vaporized=""/>
    <tripinfo id="Pertini_20_9" depart="19.00" departLane="63[0]_1" departPos="0.00" departSpeed="0.00" departDelay="0.00" arrival="89.00" arrivalLane="4[1][1][1]_0" arrivalPos="172.70" arrivalSpeed="13.75" duration="70.00" routeLength="889.67" waitSteps="0" timeLoss="5.95" rerouteNo="0" devices="tripinfo_Pertini_20_9" vType="passenger3" speedFactor="1.00" vaporized=""/>
    <tripinfo id="Pertini_20_10" depart="21.00" departLane="63[0]_2" departPos="0.00" departSpeed="0.00" departDelay="0.00" arrival="91.00" arrivalLane="4[1][1][1]_0" arrivalPos="172.70" arrivalSpeed="12.50" duration="70.00" routeLength="889.67" waitSteps="0" timeLoss="5.90" rerouteNo="0" devices="tripinfo_Pertini_20_10" vType="passenger2a" speedFactor="1.00" vaporized=""/>
    <tripinfo id="Certosa_9_0" depart="0.00" departLane="22[0]_1" departPos="0.00" departSpeed="0.00" departDelay="0.00" arrival="94.00" arrivalLane="2[1][1][1]b_1" arrivalPos="323.28" arrivalSpeed="12.92" duration="94.00" routeLength="620.07" waitSteps="36" timeLoss="49.32" rerouteNo="0" devices="tripinfo_Certosa_9_0" vType="passenger3" speedFactor="1.00" vaporized=""/>
    <tripinfo id="Pertini_20_11" depart="23.00" departLane="63[0]_1" departPos="0.00" departSpeed="0.00" departDelay="0.00" arrival="95.00" arrivalLane="4[1][1][1]_0" arrivalPos="172.70" arrivalSpeed="13.01" duration="72.00" routeLength="889.67" waitSteps="0" timeLoss="7.07" rerouteNo="0" devices="tripinfo_Pertini_20_11" vType="passenger4" speedFactor="1.00" vaporized=""/>
    <tripinfo id="Pertini_20_12" depart="25.00" departLane="63[0]_2" departPos="0.00" departSpeed="0.00" departDelay="0.00" arrival="96.00" arrivalLane="4[1][1][1]_0" arrivalPos="172.70" arrivalSpeed="13.17" duration="71.00" routeLength="889.67" waitSteps="0" timeLoss="6.86" rerouteNo="0" devices="tripinfo_Pertini_20_12" vType="passenger2b" speedFactor="1.00" vaporized=""/>
    <tripinfo id="Prati_Capraia_100_2" depart="9.00" departLane="3[0]_1" departPos="0.00" departSpeed="0.00" departDelay="0.00" arrival="99.00" arrivalLane="3[1]b_0" arrivalPos="241.22" arrivalSpeed="13.60" duration="90.00" routeLength="624.73" waitSteps="34" timeLoss="44.40" rerouteNo="0" devices="tripinfo_Prati_Capraia_100_2" vType="passenger2a" speedFactor="1.00" vaporized=""/>
    <tripinfo id="Prati_Capraia_100_3" depart="14.00" departLane="3[0]_0" departPos="0.00" departSpeed="0.00" departDelay="0.00" arrival="100.00" arrivalLane="3[1]b_1" arrivalPos="241.22" arrivalSpeed="12.77" duration="86.00" routeLength="624.73" waitSteps="27" timeLoss="40.44" rerouteNo="0" devices="tripinfo_Prati_Capraia_100_3" vType="passenger1" speedFactor="1.00" vaporized=""/>
    <tripinfo id="Pertini_20_14" depart="30.00" departLane="63[0]_1" departPos="0.00" departSpeed="0.00" departDelay="0.00" arrival="100.00" arrivalLane="4[1][1][1]_0" arrivalPos="172.70" arrivalSpeed="13.58" duration="70.00" routeLength="889.67" waitSteps="0" timeLoss="5.68" rerouteNo="0" devices="tripinfo_Pertini_20_14" vType="passenger1" speedFactor="1.00" vaporized=""/>
    <tripinfo id="Prati_Capraia_100_5" depart="24.00" departLane="3[0]_0" departPos="0.00" departSpeed="0.00" departDelay="0.00" arrival="101.00" arrivalLane="3[1]b_0" arrivalPos="241.22" arrivalSpeed="13.71" duration="77.00" routeLength="624.73" waitSteps="20" timeLoss="31.25" rerouteNo="0" devices="tripinfo_Prati_Capraia_100_5" vType="passenger1" speedFactor="1.00" vaporized=""/>
    <tripinfo id="Prati_Capraia_100_4" depart="19.00" departLane="3[0]_1" departPos="0.00" departSpeed="0.00" departDelay="0.00" arrival="102.00" arrivalLane="3[1]b_1" arrivalPos="241.22" arrivalSpeed="13.45" duration="83.00" routeLength="624.73" waitSteps="26" timeLoss="37.19" rerouteNo="0" devices="tripinfo_Prati_Capraia_100_4" vType="passenger2b" speedFactor="1.00" vaporized=""/>
    <tripinfo id="Gandhi_80_11" depart="17.00" departLane="1[0]_0" departPos="0.00" departSpeed="0.00" departDelay="0.00" arrival="103.00" arrivalLane="21_0" arrivalPos="103.70" arrivalSpeed="13.66" duration="86.00" routeLength="515.76" waitSteps="37" timeLoss="48.11" rerouteNo="0" devices="tripinfo_Gandhi_80_11" vType="passenger1" speedFactor="1.00" vaporized=""/>
    <tripinfo id="Pertini_20_15" depart="32.00" departLane="63[0]_2" departPos="0.00" departSpeed="0.00" departDelay="0.00" arrival="103.00" arrivalLane="4[1][1][1]_0" arrivalPos="172.70" arrivalSpeed="13.12" duration="71.00" routeLength="889.67" waitSteps="0" timeLoss="6.33" rerouteNo="0" devices="tripinfo_Pertini_20_15" vType="passenger2a" speedFactor="1.00" vaporized=""/>
    <tripinfo id="Prati_Capraia_100_8" depart="38.00" departLane="3[0]_1" departPos="0.00" departSpeed="0.00" departDelay="0.00" arrival="104.00" arrivalLane="3[1]b_0" arrivalPos="241.22" arrivalSpeed="12.99" duration="66.00" routeLength="624.73" waitSteps="9" timeLoss="20.82" rerouteNo="0" devices="tripinfo_Prati_Capraia_100_8" vType="passenger4" speedFactor="1.00" vaporized=""/>
    <tripinfo id="Pertini_20_16" depart="34.00" departLane="63[0]_1" departPos="0.00" departSpeed="0.00" departDelay="0.00" arrival="105.00" arrivalLane="4[1][1][1]_0" arrivalPos="172.70" arrivalSpeed="12.41" duration="71.00" routeLength="889.67" waitSteps="0" timeLoss="6.36" rerouteNo="0" devices="tripinfo_Pertini_20_16" vType="passenger2a" speedFactor="1.00" vaporized=""/>
    <tripinfo id="Pertini_20_17" depart="36.00" departLane="63[0]_2" departPos="0.00" departSpeed="0.00" departDelay="0.00" arrival="107.00" arrivalLane="4[1][1][1]_1" arrivalPos="172.70" arrivalSpeed="12.95" duration="71.00" routeLength="889.67" waitSteps="0" timeLoss="6.22" rerouteNo="0" devices="tripinfo_Pertini_20_17" vType="passenger2a" speedFactor="1.00" vaporized=""/>
    <tripinfo id="Prati_Capraia_100_11" depart="53.00" departLane="3[0]_0" departPos="0.00" departSpeed="0.00" departDelay="0.00" arrival="107.00" arrivalLane="3[1]b_0" arrivalPos="241.22" arrivalSpeed="13.61" duration="54.00" routeLength="624.73" waitSteps="0" timeLoss="8.21" rerouteNo="0" devices="tripinfo_Prati_Capraia_100_11" vType="passenger2a" speedFactor="1.00" vaporized=""/>
    <tripinfo id="Pertini_20_18" depart="38.00" departLane="63[0]_1" departPos="0.00" departSpeed="0.00" departDelay="0.00" arrival="108.00" arrivalLane="4[1][1][1]_0" arrivalPos="172.70" arrivalSpeed="13.49" duration="70.00" routeLength="889.67" waitSteps="0" timeLoss="5.75" rerouteNo="0" devices="tripinfo_Pertini_20_18" vType="passenger2b" speedFactor="1.00" vaporized=""/>
    <tripinfo id="Prati_Capraia_100_12" depart="58.00" departLane="3[0]_1" departPos="0.00" departSpeed="0.00" departDelay="0.00" arrival="109.00" arrivalLane="3[1]b_0" arrivalPos="241.22" arrivalSpeed="13.50" duration="51.00" routeLength="624.73" waitSteps="0" timeLoss="5.30" rerouteNo="0" devices="tripinfo_Prati_Capraia_100_12" vType="passenger4" speedFactor="1.00" vaporized=""/>
    <tripinfo id="Pertini_20_19" depart="40.00" departLane="63[0]_2" departPos="0.00" departSpeed="0.00" departDelay="0.00" arrival="111.00" arrivalLane="4[1][1][1]_0" arrivalPos="172.70" arrivalSpeed="13.49" duration="71.00" routeLength="889.67" waitSteps="0" timeLoss="6.05" rerouteNo="0" devices="tripinfo_Pertini_20_19" vType="passenger3" speedFactor="1.00" vaporized=""/>
    <tripinfo id="Prati_Capraia_100_10" depart="48.00" departLane="3[0]_1" departPos="0.00" departSpeed="0.00" departDelay="0.00" arrival="113.00" arrivalLane="3[1]b_0" arrivalPos="241.22" arrivalSpeed="12.73" duration="65.00" routeLength="624.73" waitSteps="2" timeLoss="19.74" rerouteNo="0" devices="tripinfo_Prati_Capraia_100_10" vType="passenger1" speedFactor="1.00" vaporized=""/>
    <tripinfo id="Prati_Capraia_100_13" depart="63.00" departLane="3[0]_0" departPos="0.00" departSpeed="0.00" departDelay="0.00" arrival="115.00" arrivalLane="3[1]b_0" arrivalPos="241.22" arrivalSpeed="13.48" duration="52.00" routeLength="624.73" waitSteps="0" timeLoss="6.50" rerouteNo="0" devices="tripinfo_Prati_Capraia_100_13" vType="passenger4" speedFactor="1.00" vaporized=""/>
    <tripinfo id="Saffi_30_4" depart="11.00" departLane="12_0" departPos="0.00" departSpeed="0.00" departDelay="0.00" arrival="115.00" arrivalLane="70_0" arrivalPos="61.95" arrivalSpeed="13.20" duration="104.00" routeLength="1146.38" waitSteps="7" timeLoss="20.79" rerouteNo="0" devices="tripinfo_Saffi_30_4" vType="passenger1" speedFactor="1.00" vaporized=""/>
    <tripinfo id="Pertini_20_21" depart="45.00" departLane="63[0]_1" departPos="0.00" departSpeed="0.00" departDelay="0.00" arrival="116.00" arrivalLane="4[1][1][1]_0" arrivalPos="172.70" arrivalSpeed="13.32" duration="71.00" routeLength="889.67" waitSteps="0" timeLoss="6.64" rerouteNo="0" devices="tripinfo_Pertini_20_21" vType="passenger1" speedFactor="1.00" vaporized=""/>
    <tripinfo id="Pertini_20_22" depart="47.00" departLane="63[0]_2" departPos="0.00" departSpeed="0.00" departDelay="0.00" arrival="118.00" arrivalLane="4[1][1][1]_0" arrivalPos="172.70" arrivalSpeed="12.82" duration="71.00" routeLength="889.67" waitSteps="0" timeLoss="6.82" rerouteNo="0" devices="tripinfo_Pertini_20_22" vType="passenger1" speedFactor="1.00" vaporized=""/>
    <tripinfo id="Prati_Capraia_100_9" depart="43.00" departLane="3[0]_0" departPos="0.00" departSpeed="0.00" departDelay="0.00" arrival="119.00" arrivalLane="3[1]b_0" arrivalPos="241.22" arrivalSpeed="13.19" duration="76.00" routeLength="624.73" waitSteps="9" timeLoss="30.75" rerouteNo="0" devices="tripinfo_Prati_Capraia_100_9" vType="passenger2a" speedFactor="1.00" vaporized=""/>
    <tripinfo id="Pertini_10_20" depart="43.00" departLane="63[0]_2" departPos="0.00" departSpeed="0.00" departDelay="0.00" arrival="119.00" arrivalLane="10_0" arrivalPos="226.64" arrivalSpeed="13.60" duration="76.00" routeLength="944.54" waitSteps="0" timeLoss="7.78" rerouteNo="0" devices="tripinfo_Pertini_10_20" vType="passenger1" speedFactor="1.00" vaporized=""/>
    <tripinfo id="Sabotino_9_0" depart="0.00" departLane="41_0" departPos="0.00" departSpeed="0.00" departDelay="0.00" arrival="120.00" arrivalLane="2[1][1][1]b_0" arrivalPos="323.28" arrivalSpeed="13.66" duration="120.00" routeLength="1125.60" waitSteps="25" timeLoss="38.18" rerouteNo="0" devices="tripinfo_Sabotino_9_0" vType="passenger3" speedFactor="1.00" vaporized=""/>
    <tripinfo id="Sabotino_9_1" depart="9.00" departLane="41_0" departPos="0.00" departSpeed="0.00" departDelay="0.00" arrival="121.00" arrivalLane="2[1][1][1]b_1" arrivalPos="323.28" arrivalSpeed="12.55" duration="112.00" routeLength="1125.60" waitSteps="17" timeLoss="30.19" rerouteNo="0" devices="tripinfo_Sabotino_9_1" vType="passenger2b" speedFactor="1.00" vaporized=""/>
    <tripinfo id="Gandhi_80_45" depart="70.00" departLane="1[0]_0" departPos="0.00" departSpeed="0.00" departDelay="0.00" arrival="122.00" arrivalLane="21_0" arrivalPos="103.70" arrivalSpeed="13.68" duration="52.00" routeLength="515.76" waitSteps="1" timeLoss="14.19" rerouteNo="0" devices="tripinfo_Gandhi_80_45" vType="passenger1" speedFactor="1.00" vaporized=""/>
    <tripinfo id="Sabotino_9_2" depart="18.00" departLane="41_0" departPos="0.00" departSpeed="0.00" departDelay="0.00" arrival="123.00" arrivalLane="2[1][1][1]b_0" arrivalPos="323.28" arrivalSpeed="13.53" duration="105.00" routeLength="1125.60" waitSteps="10" timeLoss="23.38" rerouteNo="0" devices="tripinfo_Sabotino_9_2" vType="passenger1" speedFactor="1.00" vaporized=""/>
    <tripinfo id="Prati_Capraia_100_14" depart="68.00" departLane="3[0]_1" departPos="0.00" departSpeed="0.00" departDelay="0.00" arrival="124.00" arrivalLane="3[1]b_0" arrivalPos="241.22" arrivalSpeed="12.53" duration="56.00" routeLength="624.73" waitSteps="0" timeLoss="10.44" rerouteNo="0" devices="tripinfo_Prati_Capraia_100_14" vType="passenger2a" speedFactor="1.00" vaporized=""/>
    <tripinfo id="Pertini_20_25" depart="53.00" departLane="63[0]_1" departPos="0.00" departSpeed="0.00" departDelay="0.00" arrival="124.00" arrivalLane="4[1][1][1]_0" arrivalPos="172.70" arrivalSpeed="12.84" duration="71.00" routeLength="889.67" waitSteps="0" timeLoss="6.56" rerouteNo="0" devices="tripinfo_Pertini_20_25" vType="passenger1" speedFactor="1.00" vaporized=""/>
    <tripinfo id="Pertini_20_26" depart="55.00" departLane="63[0]_2" departPos="0.00" departSpeed="0.00" departDelay="0.00" arrival="125.00" arrivalLane="4[1][1][1]_1" arrivalPos="172.70" arrivalSpeed="12.55" duration="70.00" routeLength="889.67" waitSteps="0" timeLoss="5.77" rerouteNo="0" devices="tripinfo_Pertini_20_26" vType="passenger3" speedFactor="1.00" vaporized=""/>
    <tripinfo id="Sabotino_9_3" depart="27.00" departLane="41_0" departPos="0.00" departSpeed="0.00" departDelay="0.00" arrival="125.00" arrivalLane="2[1][1][1]b_1" arrivalPos="323.28" arrivalSpeed="13.78" duration="98.00" routeLength="1125.60" waitSteps="2" timeLoss="16.01" rerouteNo="0" devices="tripinfo_Sabotino_9_3" vType="passenger5" speedFactor="1.00" vaporized=""/>
    <tripinfo id="Prati_Capraia_10_19" depart="92.00" departLane="3[0]_0" departPos="0.00" departSpeed="0.00" departDelay="0.00" arrival="126.00" arrivalLane="10_0" arrivalPos="226.64" arrivalSpeed="12.71" duration="34.00" routeLength="410.85" waitSteps="0" timeLoss="4.28" rerouteNo="0" devices="tripinfo_Prati_Capraia_10_19" vType="passenger2b" speedFactor="1.00" vaporized=""/>
    <tripinfo id="Sabotino_9_4" depart="36.00" departLane="41_0" departPos="0.00" departSpeed="0.00" departDelay="0.00" arrival="127.00" arrivalLane="2[1][1][1]b_0" arrivalPos="323.28" arrivalSpeed="12.77" duration="91.00" routeLength="1125.60" waitSteps="0" timeLoss="9.25" rerouteNo="0" devices="tripinfo_Sabotino_9_4" vType="passenger2a" speedFactor="1.00" vaporized=""/>
    <tripinfo id="Prati_Capraia_100_16" depart="77.00" departLane="3[0]_0" departPos="0.00" departSpeed="0.00" departDelay="0.00" arrival="128.00" arrivalLane="3[1]b_0" arrivalPos="241.22" arrivalSpeed="13.10" duration="51.00" routeLength="624.73" waitSteps="0" timeLoss="5.65" rerouteNo="0" devices="tripinfo_Prati_Capraia_100_16" vType="passenger1" speedFactor="1.00" vaporized=""/>
    <tripinfo id="Pertini_20_27" depart="58.00" departLane="63[0]_1" departPos="0.00" departSpeed="0.00" departDelay="0.00" arrival="129.00" arrivalLane="4[1][1][1]_0" arrivalPos="172.70" arrivalSpeed="13.12" duration="71.00" routeLength="889.67" waitSteps="0" timeLoss="6.30" rerouteNo="0" devices="tripinfo_Pertini_20_27" vType="passenger5" speedFactor="1.00" vaporized=""/>
    <tripinfo id="Pertini_20_28" depart="60.00" departLane="63[0]_2" departPos="0.00" departSpeed="0.00" departDelay="0.00" arrival="131.00" arrivalLane="4[1][1][1]_0" arrivalPos="172.70" arrivalSpeed="13.38" duration="71.00" routeLength="889.67" waitSteps="0" timeLoss="6.55" rerouteNo="0" devices="tripinfo_Pertini_20_28" vType="passenger1" speedFactor="1.00" vaporized=""/>
    <tripinfo id="Sabotino_9_5" depart="45.00" departLane="41_0" departPos="0.00" departSpeed="0.00" departDelay="0.00" arrival="133.00" arrivalLane="2[1][1][1]b_0" arrivalPos="323.28" arrivalSpeed="13.71" duration="88.00" routeLength="1125.60" waitSteps="0" timeLoss="6.46" rerouteNo="0" devices="tripinfo_Sabotino_9_5" vType="passenger3" speedFactor="1.00" vaporized=""/>
    <tripinfo id="Prati_Capraia_100_17" depart="82.00" departLane="3[0]_1" departPos="0.00" departSpeed="0.00" departDelay="0.00" arrival="133.00" arrivalLane="3[1]b_0" arrivalPos="241.22" arrivalSpeed="13.64" duration="51.00" routeLength="624.73" waitSteps="0" timeLoss="5.24" rerouteNo="0" devices="tripinfo_Prati_Capraia_100_17" vType="passenger2b" speedFactor="1.00" vaporized=""/>
    <tripinfo id="Montefiorino_60_7" depart="28.00" departLane="43_0" departPos="0.00" departSpeed="0.00" departDelay="0.00" arrival="137.00" arrivalLane="40[1]_0" arrivalPos="498.82" arrivalSpeed="13.78" duration="109.00" routeLength="1022.94" waitSteps="23" timeLoss="34.43" rerouteNo="0" devices="tripinfo_Montefiorino_60_7" vType="passenger1" speedFactor="1.00" vaporized=""/>
    <tripinfo id="Prati_Capraia_100_18" depart="87.00" departLane="3[0]_0" departPos="0.00" departSpeed="0.00" departDelay="0.00" arrival="138.00" arrivalLane="3[1]b_0" arrivalPos="241.22" arrivalSpeed="13.37" duration="51.00" routeLength="624.73" waitSteps="0" timeLoss="5.53" rerouteNo="0" devices="tripinfo_Prati_Capraia_100_18" vType="passenger3" speedFactor="1.00" vaporized=""/>
    <tripinfo id="Borgo_20_3" depart="18.00" departLane="6_1" departPos="0.00" departSpeed="0.00" departDelay="0.00" arrival="145.00" arrivalLane="4[1][1][1]_1" arrivalPos="172.70" arrivalSpeed="13.74" duration="127.00" routeLength="552.91" waitSteps="76" timeLoss="87.05" rerouteNo="0" devices="tripinfo_Borgo_20_3" vType="passenger1" speedFactor="1.00" vaporized=""/>
    <tripinfo id="Borgo_20_4" depart="24.00" departLane="6_1" departPos="0.00" departSpeed="0.00" departDelay="0.00" arrival="147.00" arrivalLane="4[1][1][1]_1" arrivalPos="172.70" arrivalSpeed="13.05" duration="123.00" routeLength="552.91" waitSteps="73" timeLoss="83.18" rerouteNo="0" devices="tripinfo_Borgo_20_4" vType="passenger1" speedFactor="1.00" vaporized=""/>
    <tripinfo id="Borgo_20_6" depart="36.00" departLane="6_1" departPos="0.00" departSpeed="0.00" departDelay="0.00" arrival="149.00" arrivalLane="4[1][1][1]_1" arrivalPos="172.70" arrivalSpeed="13.88" duration="113.00" routeLength="552.91" waitSteps="61" timeLoss="73.03" rerouteNo="0" devices="tripinfo_Borgo_20_6" vType="passenger3" speedFactor="1.00" vaporized=""/>
    <tripinfo id="Borgo_20_7" depart="42.00" departLane="6_1" departPos="0.00" departSpeed="0.00" departDelay="0.00" arrival="151.00" arrivalLane="4[1][1][1]_1" arrivalPos="172.70" arrivalSpeed="12.77" duration="109.00" routeLength="552.91" waitSteps="57" timeLoss="68.97" rerouteNo="0" devices="tripinfo_Borgo_20_7" vType="passenger2b" speedFactor="1.00" vaporized=""/>
    <tripinfo id="Nigrisoli_50_6" depart="37.00" departLane="65_0" departPos="0.00" departSpeed="0.00" departDelay="0.00" arrival="151.00" arrivalLane="35[1][1][1][1]_0" arrivalPos="260.17" arrivalSpeed="13.13" duration="114.00" routeLength="1162.39" waitSteps="17" timeLoss="30.09" rerouteNo="0" devices="tripinfo_Nigrisoli_50_6" vType="ignoring1" speedFactor="1.00" vaporized=""/>
    <tripinfo id="Malvasia_30_15" depart="72.00" departLane="52_0" departPos="0.00" departSpeed="0.00" departDelay="0.00" arrival="151.00" arrivalLane="70_0" arrivalPos="61.95" arrivalSpeed="13.64" duration="79.00" routeLength="961.32" waitSteps="0" timeLoss="9.20" rerouteNo="0" devices="tripinfo_Malvasia_30_15" vType="passenger2a" speedFactor="1.00" vaporized=""/>
    <tripinfo id="Borgo_20_9" depart="54.00" departLane="6_1" departPos="0.00" departSpeed="0.00" departDelay="0.00" arrival="155.00" arrivalLane="4[1][1][1]_1" arrivalPos="172.70" arrivalSpeed="12.53" duration="101.00" routeLength="552.91" waitSteps="47" timeLoss="61.01" rerouteNo="0" devices="tripinfo_Borgo_20_9" vType="passenger2b" speedFactor="1.00" vaporized=""/>
    <tripinfo id="Borgo_20_13" depart="79.00" departLane="6_1" departPos="0.00" departSpeed="0.00" departDelay="0.00" arrival="158.00" arrivalLane="4[1][1][1]_1" arrivalPos="172.70" arrivalSpeed="13.01" duration="79.00" routeLength="552.91" waitSteps="27" timeLoss="39.15" rerouteNo="0" devices="tripinfo_Borgo_20_13" vType="passenger1" speedFactor="1.00" vaporized=""/>
    <tripinfo id="Gandhi_70_32" depart="50.00" departLane="1[0]_0" departPos="0.00" departSpeed="0.00" departDelay="0.00" arrival="159.00" arrivalLane="44_0" arrivalPos="124.60" arrivalSpeed="13.68" duration="109.00" routeLength="1080.38" waitSteps="14" timeLoss="30.47" rerouteNo="0" devices="tripinfo_Gandhi_70_32" vType="passenger3" speedFactor="1.00" vaporized=""/>
    <tripinfo id="Borgo_100_0" depart="0.00" departLane="6_0" departPos="0.00" departSpeed="0.00" departDelay="0.00" arrival="160.00" arrivalLane="3[1]b_0" arrivalPos="241.22" arrivalSpeed="12.71" duration="160.00" routeLength="798.33" waitSteps="90" timeLoss="102.31" rerouteNo="0" devices="tripinfo_Borgo_100_0" vType="passenger4" speedFactor="1.00" vaporized=""/>
    <tripinfo id="Borgo_100_2" depart="12.00" departLane="6_0" departPos="0.00" departSpeed="0.00" departDelay="0.00" arrival="162.00" arrivalLane="3[1]b_0" arrivalPos="241.22" arrivalSpeed="12.57" duration="150.00" routeLength="798.33" waitSteps="82" timeLoss="92.47" rerouteNo="0" devices="tripinfo_Borgo_100_2" vType="passenger3" speedFactor="1.00" vaporized=""/>
    <tripinfo id="Borgo_100_8" depart="48.00" departLane="6_0" departPos="0.00" departSpeed="0.00" departDelay="0.00" arrival="163.00" arrivalLane="3[1]b_1" arrivalPos="241.22" arrivalSpeed="13.13" duration="115.00" routeLength="798.33" waitSteps="45" timeLoss="57.52" rerouteNo="0" devices="tripinfo_Borgo_100_8" vType="passenger4" speedFactor="1.00" vaporized=""/>
    <tripinfo id="Pertini_102_24" depart="55.00" departLane="13[0]_0" departPos="0.00" departSpeed="0.00" departDelay="4.00" arrival="165.00" arrivalLane="29[0]_0" arrivalPos="132.42" arrivalSpeed="13.57" duration="110.00" routeLength="823.82" waitSteps="26" timeLoss="50.13" rerouteNo="0" devices="tripinfo_Pertini_102_24" vType="passenger4" speedFactor="1.00" vaporized=""/>
    <tripinfo id="Borgo_100_11" depart="66.00" departLane="6_0" departPos="0.00" departSpeed="0.00" departDelay="0.00" arrival="166.00" arrivalLane="3[1]b_0" arrivalPos="241.22" arrivalSpeed="13.40" duration="100.00" routeLength="798.33" waitSteps="31" timeLoss="41.73" rerouteNo="0" devices="tripinfo_Borgo_100_11" vType="passenger3" speedFactor="1.00" vaporized=""/>
    <tripinfo id="Borgo_100_12" depart="72.00" departLane="6_0" departPos="0.00" departSpeed="0.00" departDelay="0.00" arrival="167.00" arrivalLane="3[1]b_0" arrivalPos="241.22" arrivalSpeed="12.84" duration="95.00" routeLength="798.33" waitSteps="25" timeLoss="37.50" rerouteNo="0" devices="tripinfo_Borgo_100_12" vType="passenger3" speedFactor="1.00" vaporized=""/>
    <tripinfo id="Borgo_100_15" depart="91.00" departLane="6_0" departPos="0.00" departSpeed="0.00" departDelay="0.00" arrival="169.00" arrivalLane="3[1]b_0" arrivalPos="241.22" arrivalSpeed="13.27" duration="78.00" routeLength="798.33" waitSteps="7" timeLoss="20.17" rerouteNo="0" devices="tripinfo_Borgo_100_15" vType="passenger1" speedFactor="1.00" vaporized=""/>
    <tripinfo id="Saffi_10_1" depart="4.00" departLane="12_0" departPos="0.00" departSpeed="0.00" departDelay="2.00" arrival="174.00" arrivalLane="10_0" arrivalPos="226.64" arrivalSpeed="13.22" duration="170.00" routeLength="1852.34" waitSteps="15" timeLoss="35.81" rerouteNo="0" devices="tripinfo_Saffi_10_1" vType="passenger1" speedFactor="1.00" vaporized=""/>
    <tripinfo id="Nigrisoli_90_7" depart="43.00" departLane="65_0" departPos="0.00" departSpeed="0.00" departDelay="0.00" arrival="179.00" arrivalLane="2[1][1][1]b_0" arrivalPos="323.28" arrivalSpeed="13.50" duration="136.00" routeLength="1440.84" waitSteps="14" timeLoss="31.82" rerouteNo="0" devices="tripinfo_Nigrisoli_90_7" vType="passenger3" speedFactor="1.00" vaporized=""/>
    <tripinfo id="Certosa_9_3" depart="109.00" departLane="22[0]_1" departPos="0.00" departSpeed="0.00" departDelay="0.00" arrival="184.00" arrivalLane="2[1][1][1]b_1" arrivalPos="323.28" arrivalSpeed="12.59" duration="75.00" routeLength="620.07" waitSteps="16" timeLoss="29.76" rerouteNo="0" devices="tripinfo_Certosa_9_3" vType="passenger1" speedFactor="1.00" vaporized=""/>
    <tripinfo id="Malvasia_10_6" depart="29.00" departLane="52_0" departPos="0.00" departSpeed="0.00" departDelay="0.00" arrival="185.00" arrivalLane="10_0" arrivalPos="226.64" arrivalSpeed="12.87" duration="156.00" routeLength="1667.28" waitSteps="14" timeLoss="35.88" rerouteNo="0" devices="tripinfo_Malvasia_10_6" vType="passenger1" speedFactor="1.00" vaporized=""/>
    <tripinfo id="Gandhi_70_64" depart="100.00" departLane="1[0]_0" departPos="0.00" departSpeed="0.00" departDelay="0.00" arrival="186.00" arrivalLane="44_0" arrivalPos="124.60" arrivalSpeed="13.68" duration="86.00" routeLength="1080.38" waitSteps="0" timeLoss="7.62" rerouteNo="0" devices="tripinfo_Gandhi_70_64" vType="passenger2a" speedFactor="1.00" vaporized=""/>
    <tripinfo id="Saffi_103_2" depart="5.00" departLane="12_1" departPos="0.00" departSpeed="0.00" departDelay="0.00" arrival="188.00" arrivalLane="3[1]b_1" arrivalPos="241.22" arrivalSpeed="12.87" duration="183.00" routeLength="2047.36" waitSteps="12" timeLoss="35.06" rerouteNo="0" devices="tripinfo_Saffi_103_2" vType="passenger4" speedFactor="1.00" vaporized=""/>
    <tripinfo id="Saffi_103_0" depart="0.00" departLane="12_1" departPos="0.00" departSpeed="0.00" departDelay="0.00" arrival="188.00" arrivalLane="3[1]b_0" arrivalPos="241.22" arrivalSpeed="12.65" duration="188.00" routeLength="2047.36" waitSteps="18" timeLoss="40.15" rerouteNo="0" devices="tripinfo_Saffi_103_0" vType="passenger1" speedFactor="1.00" vaporized=""/>
    <tripinfo id="Malvasia_100_2" depart="9.00" departLane="52_0" departPos="0.00" departSpeed="0.00" departDelay="0.00" arrival="190.00" arrivalLane="3[1]b_0" arrivalPos="241.22" arrivalSpeed="13.25" duration="181.00" routeLength="1862.30" waitSteps="26" timeLoss="46.46" rerouteNo="0" devices="tripinfo_Malvasia_100_2" vType="passenger4" speedFactor="1.00" vaporized=""/>
    <tripinfo id="Malvasia_100_3" depart="14.00" departLane="52_0" departPos="0.00" departSpeed="0.00" departDelay="0.00" arrival="193.00" arrivalLane="3[1]b_0" arrivalPos="241.22" arrivalSpeed="13.80" duration="179.00" routeLength="1862.30" waitSteps="21" timeLoss="44.28" rerouteNo="0" devices="tripinfo_Malvasia_100_3" vType="passenger1" speedFactor="1.00" vaporized=""/>
    <tripinfo id="Malvasia_100_5" depart="24.00" departLane="52_0" departPos="0.00" departSpeed="0.00" departDelay="0.00" arrival="195.00" arrivalLane="3[1]b_0" arrivalPos="241.22" arrivalSpeed="13.79" duration="171.00" routeLength="1862.30" waitSteps="15" timeLoss="36.72" rerouteNo="0" devices="tripinfo_Malvasia_100_5" vType="passenger2b" speedFactor="1.00" vaporized=""/>
    <tripinfo id="Malvasia_100_7" depart="34.00" departLane="52_0" departPos="0.00" departSpeed="0.00" departDelay="0.00" arrival="197.00" arrivalLane="3[1]b_1" arrivalPos="241.22" arrivalSpeed="13.53" duration="163.00" routeLength="1862.30" waitSteps="7" timeLoss="28.54" rerouteNo="0" devices="tripinfo_Malvasia_100_7" vType="passenger2b" speedFactor="1.00" vaporized=""/>