<?xml version="1.0" encoding="UTF-8"?>

<!-- generated on 金  5/ 3 20:56:24 2019 by SUMO gui Version 0.32.0
<?xml version="1.0" encoding="UTF-8"?>

<configuration xmlns:xsi="http://www.w3.org/2001/XMLSchema-instance" xsi:noNamespaceSchemaLocation="http://sumo.dlr.de/xsd/sumoConfiguration.xsd">

    <input>
        <net-file value="exam1no.net.xml"/>
        <route-files value="exam1no.rou.xml"/>
    </input>

    <output>
        <queue-output value="queue.xml"/>
    </output>

    <time>
        <begin value="0"/>
        <end value="6000"/>
    </time>

    <traci_server>
        <remote-port value="52218"/>
    </traci_server>

    <gui_only>
        <gui-settings-file value="exam1.settings.xml"/>
    </gui_only>

</configuration>
-->

<queue-export xmlns:xsi="http://www.w3.org/2001/XMLSchema-instance" xsi:noNamespaceSchemaLocation="http://sumo.dlr.de/xsd/queue_file.xsd">
    <data timestep="0.00">
        <lanes/>
    </data>
    <data timestep="1.00">
        <lanes/>
    </data>
    <data timestep="2.00">
        <lanes/>
    </data>
    <data timestep="3.00">
        <lanes/>
    </data>
    <data timestep="4.00">
        <lanes/>
    </data>
    <data timestep="5.00">
        <lanes/>
    </data>
    <data timestep="6.00">
        <lanes/>
    </data>
    <data timestep="7.00">
        <lanes/>
    </data>
    <data timestep="8.00">
        <lanes/>
    </data>
    <data timestep="9.00">
        <lanes/>
    </data>
    <data timestep="10.00">
        <lanes/>
    </data>
    <data timestep="11.00">
        <lanes/>
    </data>
    <data timestep="12.00">
        <lanes>
            <lane id="AuptoA_0" queueing_time="1.00" queueing_length="5.13" queueing_length_experimental="5.13"/>
        </lanes>
    </data>
    <data timestep="13.00">
        <lanes/>
    </data>
    <data timestep="14.00">
        <lanes/>
    </data>
    <data timestep="15.00">
        <lanes/>
    </data>
    <data timestep="16.00">
        <lanes/>
    </data>
    <data timestep="17.00">
        <lanes>
            <lane id="AuptoA_1" queueing_time="0.00" queueing_length="0.00" queueing_length_experimental="5.24"/>
        </lanes>
    </data>
    <data timestep="18.00">
        <lanes>
            <lane id="AuptoA_1" queueing_time="1.00" queueing_length="5.17" queueing_length_experimental="5.17"/>
        </lanes>
    </data>
    <data timestep="19.00">
        <lanes>
            <lane id="AuptoA_0" queueing_time="0.00" queueing_length="0.00" queueing_length_experimental="5.17"/>
        </lanes>
    </data>
    <data timestep="20.00">
        <lanes>
            <lane id="AuptoA_0" queueing_time="1.00" queueing_length="5.11" queueing_length_experimental="5.11"/>
        </lanes>
    </data>
    <data timestep="21.00">
        <lanes/>
    </data>
    <data timestep="22.00">
        <lanes/>
    </data>
    <data timestep="23.00">
        <lanes/>
    </data>
    <data timestep="24.00">
        <lanes/>
    </data>
    <data timestep="25.00">
        <lanes/>
    </data>
    <data timestep="26.00">
        <lanes>
            <lane id="AuptoA_0" queueing_time="0.00" queueing_length="0.00" queueing_length_experimental="5.24"/>
        </lanes>
    </data>
    <data timestep="27.00">
        <lanes>
            <lane id="AuptoA_0" queueing_time="1.00" queueing_length="5.17" queueing_length_experimental="5.17"/>
        </lanes>
    </data>
    <data timestep="28.00">
        <lanes/>
    </data>
    <data timestep="29.00">
        <lanes/>
    </data>
    <data timestep="30.00">
        <lanes>
            <lane id="AuptoA_1" queueing_time="1.00" queueing_length="5.18" queueing_length_experimental="5.18"/>
        </lanes>
    </data>
    <data timestep="31.00">
        <lanes/>
    </data>
    <data timestep="32.00">
        <lanes/>
    </data>
    <data timestep="33.00">
        <lanes/>
    </data>
    <data timestep="34.00">
        <lanes>
            <lane id="AuptoA_0" queueing_time="0.00" queueing_length="0.00" queueing_length_experimental="5.18"/>
            <lane id="AuptoA_1" queueing_time="0.00" queueing_length="0.00" queueing_length_experimental="6.13"/>
            <lane id="BtoA_0" queueing_time="0.00" queueing_length="0.00" queueing_length_experimental="5.19"/>
        </lanes>
    </data>
    <data timestep="35.00">
        <lanes>
            <lane id="AuptoA_0" queueing_time="1.00" queueing_length="5.12" queueing_length_experimental="5.12"/>
            <lane id="AuptoA_1" queueing_time="0.00" queueing_length="0.00" queueing_length_experimental="5.53"/>
            <lane id="BtoA_0" queueing_time="1.00" queueing_length="5.12" queueing_length_experimental="5.12"/>
        </lanes>
    </data>
    <data timestep="36.00">
        <lanes>
            <lane id="AuptoA_1" queueing_time="0.00" queueing_length="0.00" queueing_length_experimental="5.20"/>
        </lanes>
    </data>
    <data timestep="37.00">
        <lanes>
            <lane id="AuptoA_1" queueing_time="1.00" queueing_length="5.13" queueing_length_experimental="5.13"/>
        </lanes>
    </data>
    <data timestep="38.00">
        <lanes/>
    </data>
    <data timestep="39.00">
        <lanes/>
    </data>
    <data timestep="40.00">
        <lanes>
            <lane id="BtoA_0" queueing_time="0.00" queueing_length="0.00" queueing_length_experimental="5.43"/>
        </lanes>
    </data>
    <data timestep="41.00">
        <lanes>
            <lane id="AuptoA_0" queueing_time="1.00" queueing_length="5.13" queueing_length_experimental="5.13"/>
            <lane id="BtoA_0" queueing_time="0.00" queueing_length="0.00" queueing_length_experimental="13.06"/>
        </lanes>
    </data>
    <data timestep="42.00">
        <lanes>
            <lane id="BtoA_0" queueing_time="1.00" queueing_length="5.12" queueing_length_experimental="12.85"/>
        </lanes>
    </data>
    <data timestep="43.00">
        <lanes>
            <lane id="BtoA_0" queueing_time="0.00" queueing_length="0.00" queueing_length_experimental="20.37"/>
        </lanes>
    </data>
    <data timestep="44.00">
        <lanes>
            <lane id="AuptoA_1" queueing_time="0.00" queueing_length="0.00" queueing_length_experimental="5.32"/>
            <lane id="BtoA_0" queueing_time="0.00" queueing_length="0.00" queueing_length_experimental="20.22"/>
        </lanes>
    </data>
    <data timestep="45.00">
        <lanes>
            <lane id="AuptoA_1" queueing_time="0.00" queueing_length="0.00" queueing_length_experimental="5.19"/>
            <lane id="BtoA_0" queueing_time="0.00" queueing_length="0.00" queueing_length_experimental="27.74"/>
        </lanes>
    </data>
    <data timestep="46.00">
        <lanes>
            <lane id="AuptoA_1" queueing_time="1.00" queueing_length="5.12" queueing_length_experimental="12.81"/>
            <lane id="BtoA_0" queueing_time="0.00" queueing_length="0.00" queueing_length_experimental="35.51"/>
        </lanes>
    </data>
    <data timestep="47.00">
        <lanes>
            <lane id="AuptoA_1" queueing_time="0.00" queueing_length="0.00" queueing_length_experimental="12.71"/>
            <lane id="BtoA_0" queueing_time="0.00" queueing_length="0.00" queueing_length_experimental="35.12"/>
        </lanes>
    </data>
    <data timestep="48.00">
        <lanes>
            <lane id="AuptoA_0" queueing_time="0.00" queueing_length="0.00" queueing_length_experimental="5.51"/>
            <lane id="BtoA_0" queueing_time="0.00" queueing_length="0.00" queueing_length_experimental="13.07"/>
        </lanes>
    </data>
    <data timestep="49.00">
        <lanes>
            <lane id="AuptoA_0" queueing_time="0.00" queueing_length="0.00" queueing_length_experimental="5.23"/>
            <lane id="BtoA_0" queueing_time="1.00" queueing_length="5.11" queueing_length_experimental="20.59"/>
        </lanes>
    </data>
    <data timestep="50.00">
        <lanes>
            <lane id="AuptoA_0" queueing_time="1.00" queueing_length="5.14" queueing_length_experimental="5.14"/>
            <lane id="AuptoA_1" queueing_time="0.00" queueing_length="0.00" queueing_length_experimental="5.42"/>
            <lane id="BtoA_0" queueing_time="2.00" queueing_length="12.63" queueing_length_experimental="28.39"/>
        </lanes>
    </data>
    <data timestep="51.00">
        <lanes>
            <lane id="AuptoA_1" queueing_time="0.00" queueing_length="0.00" queueing_length_experimental="5.11"/>
            <lane id="BtoA_0" queueing_time="2.00" queueing_length="12.61" queueing_length_experimental="27.94"/>
        </lanes>
    </data>
    <data timestep="52.00">
        <lanes>
            <lane id="AuptoA_1" queueing_time="1.00" queueing_length="5.10" queueing_length_experimental="5.10"/>
            <lane id="BtoA_0" queueing_time="1.00" queueing_length="20.12" queueing_length_experimental="35.56"/>
        </lanes>
    </data>
    <data timestep="53.00">
        <lanes>
            <lane id="AuptoA_1" queueing_time="2.00" queueing_length="5.10" queueing_length_experimental="5.10"/>
            <lane id="BtoA_0" queueing_time="1.00" queueing_length="27.63" queueing_length_experimental="43.55"/>
        </lanes>
    </data>
    <data timestep="54.00">
        <lanes>
            <lane id="BtoA_0" queueing_time="1.00" queueing_length="35.14" queueing_length_experimental="43.03"/>
        </lanes>
    </data>
    <data timestep="55.00">
        <lanes>
            <lane id="BtoA_0" queueing_time="0.00" queueing_length="0.00" queueing_length_experimental="51.11"/>
        </lanes>
    </data>
    <data timestep="56.00">
        <lanes>
            <lane id="AuptoA_0" queueing_time="0.00" queueing_length="0.00" queueing_length_experimental="5.22"/>
            <lane id="BtoA_0" queueing_time="1.00" queueing_length="5.17" queueing_length_experimental="50.60"/>
        </lanes>
    </data>
    <data timestep="57.00">
        <lanes>
            <lane id="AuptoA_0" queueing_time="1.00" queueing_length="5.14" queueing_length_experimental="5.14"/>
            <lane id="BtoA_0" queueing_time="2.00" queueing_length="5.12" queueing_length_experimental="58.29"/>
        </lanes>
    </data>
    <data timestep="58.00">
        <lanes>
            <lane id="BtoA_0" queueing_time="0.00" queueing_length="0.00" queueing_length_experimental="57.75"/>
        </lanes>
    </data>
    <data timestep="59.00">
        <lanes>
            <lane id="BtoA_0" queueing_time="0.00" queueing_length="0.00" queueing_length_experimental="36.40"/>
        </lanes>
    </data>
    <data timestep="60.00">
        <lanes>
            <lane id="AuptoA_1" queueing_time="0.00" queueing_length="0.00" queueing_length_experimental="5.20"/>
            <lane id="BtoA_0" queueing_time="0.00" queueing_length="0.00" queueing_length_experimental="44.14"/>
        </lanes>
    </data>
    <data timestep="61.00">
        <lanes>
            <lane id="AuptoA_1" queueing_time="1.00" queueing_length="5.15" queueing_length_experimental="5.15"/>
            <lane id="BtoA_0" queueing_time="0.00" queueing_length="0.00" queueing_length_experimental="61.76"/>
        </lanes>
    </data>
    <data timestep="62.00">
        <lanes>
            <lane id="BtoA_0" queueing_time="0.00" queueing_length="0.00" queueing_length_experimental="69.55"/>
        </lanes>
    </data>
    <data timestep="63.00">
        <lanes>
            <lane id="AuptoA_0" queueing_time="1.00" queueing_length="5.10" queueing_length_experimental="5.10"/>
            <lane id="BtoA_0" queueing_time="1.00" queueing_length="5.11" queueing_length_experimental="68.22"/>
        </lanes>
    </data>
    <data timestep="64.00">
        <lanes>
            <lane id="BtoA_0" queueing_time="2.00" queueing_length="12.62" queueing_length_experimental="76.87"/>
        </lanes>
    </data>
    <data timestep="65.00">
        <lanes>
            <lane id="BtoA_0" queueing_time="3.00" queueing_length="20.16" queueing_length_experimental="66.58"/>
        </lanes>
    </data>
    <data timestep="66.00">
        <lanes>
            <lane id="BtoA_0" queueing_time="3.00" queueing_length="20.13" queueing_length_experimental="74.47"/>
        </lanes>
    </data>
    <data timestep="67.00">
        <lanes>
            <lane id="BtoA_0" queueing_time="3.00" queueing_length="27.63" queueing_length_experimental="73.20"/>
        </lanes>
    </data>
    <data timestep="68.00">
        <lanes>
            <lane id="BtoA_0" queueing_time="2.00" queueing_length="27.62" queueing_length_experimental="81.27"/>
        </lanes>
    </data>
    <data timestep="69.00">
        <lanes>
            <lane id="AuptoA_0" queueing_time="0.00" queueing_length="0.00" queueing_length_experimental="5.15"/>
            <lane id="AuptoA_1" queueing_time="0.00" queueing_length="0.00" queueing_length_experimental="5.26"/>
            <lane id="BtoA_0" queueing_time="1.00" queueing_length="35.12" queueing_length_experimental="80.21"/>
        </lanes>
    </data>
    <data timestep="70.00">
        <lanes>
            <lane id="AuptoA_0" queueing_time="1.00" queueing_length="5.11" queueing_length_experimental="5.11"/>
            <lane id="AuptoA_1" queueing_time="0.00" queueing_length="0.00" queueing_length_experimental="5.11"/>
            <lane id="BtoA_0" queueing_time="0.00" queueing_length="0.00" queueing_length_experimental="87.77"/>
        </lanes>
    </data>
    <data timestep="71.00">
        <lanes>
            <lane id="AuptoA_1" queueing_time="1.00" queueing_length="5.11" queueing_length_experimental="5.11"/>
            <lane id="BtoA_0" queueing_time="0.00" queueing_length="0.00" queueing_length_experimental="87.21"/>
        </lanes>
    </data>
    <data timestep="72.00">
        <lanes>
            <lane id="AuptoA_1" queueing_time="0.00" queueing_length="0.00" queueing_length_experimental="12.85"/>
            <lane id="BtoA_0" queueing_time="1.00" queueing_length="5.10" queueing_length_experimental="95.06"/>
        </lanes>
    </data>
    <data timestep="73.00">
        <lanes>
            <lane id="BtoA_0" queueing_time="2.00" queueing_length="5.10" queueing_length_experimental="93.96"/>
        </lanes>
    </data>
    <data timestep="74.00">
        <lanes>
            <lane id="BtoA_0" queueing_time="3.00" queueing_length="12.62" queueing_length_experimental="81.66"/>
        </lanes>
    </data>
    <data timestep="75.00">
        <lanes>
            <lane id="AuptoA_1" queueing_time="0.00" queueing_length="0.00" queueing_length_experimental="5.50"/>
            <lane id="BtoA_0" queueing_time="4.00" queueing_length="20.20" queueing_length_experimental="89.42"/>
        </lanes>
    </data>
    <data timestep="76.00">
        <lanes>
            <lane id="AuptoA_0" queueing_time="0.00" queueing_length="0.00" queueing_length_experimental="5.28"/>
            <lane id="AuptoA_1" queueing_time="0.00" queueing_length="0.00" queueing_length_experimental="5.17"/>
            <lane id="BtoA_0" queueing_time="3.00" queueing_length="20.15" queueing_length_experimental="88.84"/>
        </lanes>
    </data>
    <data timestep="77.00">
        <lanes>
            <lane id="AuptoA_0" queueing_time="0.00" queueing_length="0.00" queueing_length_experimental="5.18"/>
            <lane id="AuptoA_1" queueing_time="1.00" queueing_length="5.11" queueing_length_experimental="5.11"/>
            <lane id="BtoA_0" queueing_time="3.00" queueing_length="27.68" queueing_length_experimental="96.48"/>
        </lanes>
    </data>
    <data timestep="78.00">
        <lanes>
            <lane id="AuptoA_0" queueing_time="1.00" queueing_length="5.10" queueing_length_experimental="5.10"/>
            <lane id="AuptoA_1" queueing_time="2.00" queueing_length="5.10" queueing_length_experimental="5.10"/>
            <lane id="BtoA_0" queueing_time="2.00" queueing_length="35.20" queueing_length_experimental="104.32"/>
        </lanes>
    </data>
    <data timestep="79.00">
        <lanes>
            <lane id="BtoA_0" queueing_time="2.00" queueing_length="42.76" queueing_length_experimental="103.31"/>
        </lanes>
    </data>
    <data timestep="80.00">
        <lanes>
            <lane id="BtoA_0" queueing_time="2.00" queueing_length="42.69" queueing_length_experimental="102.77"/>
        </lanes>
    </data>
    <data timestep="81.00">
        <lanes>
            <lane id="BtoA_0" queueing_time="1.00" queueing_length="50.21" queueing_length_experimental="110.38"/>
        </lanes>
    </data>
    <data timestep="82.00">
        <lanes>
            <lane id="BtoA_0" queueing_time="2.00" queueing_length="5.10" queueing_length_experimental="99.91"/>
        </lanes>
    </data>
    <data timestep="83.00">
        <lanes>
            <lane id="BtoA_0" queueing_time="0.00" queueing_length="0.00" queueing_length_experimental="117.01"/>
        </lanes>
    </data>
    <data timestep="84.00">
        <lanes>
            <lane id="AuptoA_0" queueing_time="0.00" queueing_length="0.00" queueing_length_experimental="5.17"/>
            <lane id="BtoA_0" queueing_time="0.00" queueing_length="0.00" queueing_length_experimental="115.87"/>
        </lanes>
    </data>
    <data timestep="85.00">
        <lanes>
            <lane id="AuptoA_0" queueing_time="1.00" queueing_length="5.13" queueing_length_experimental="5.13"/>
            <lane id="BtoA_0" queueing_time="0.00" queueing_length="0.00" queueing_length_experimental="114.83"/>
        </lanes>
    </data>
    <data timestep="86.00">
        <lanes>
            <lane id="BtoA_0" queueing_time="0.00" queueing_length="0.00" queueing_length_experimental="113.97"/>
        </lanes>
    </data>
    <data timestep="87.00">
        <lanes>
            <lane id="BtoA_0" queueing_time="0.00" queueing_length="0.00" queueing_length_experimental="121.64"/>
        </lanes>
    </data>
    <data timestep="88.00">
        <lanes>
            <lane id="BtoA_0" queueing_time="1.00" queueing_length="5.10" queueing_length_experimental="129.55"/>
        </lanes>
    </data>
    <data timestep="89.00">
        <lanes>
            <lane id="AuptoA_1" queueing_time="0.00" queueing_length="0.00" queueing_length_experimental="5.10"/>
            <lane id="BtoA_0" queueing_time="0.00" queueing_length="0.00" queueing_length_experimental="128.59"/>
        </lanes>
    </data>
    <data timestep="90.00">
        <lanes>
            <lane id="AuptoA_1" queueing_time="1.00" queueing_length="5.10" queueing_length_experimental="5.10"/>
            <lane id="BtoA_0" queueing_time="0.00" queueing_length="0.00" queueing_length_experimental="127.47"/>
        </lanes>
    </data>
    <data timestep="91.00">
        <lanes>
            <lane id="AuptoA_0" queueing_time="0.00" queueing_length="0.00" queueing_length_experimental="5.24"/>
            <lane id="BtoA_0" queueing_time="0.00" queueing_length="0.00" queueing_length_experimental="135.02"/>
        </lanes>
    </data>
    <data timestep="92.00">
        <lanes>
            <lane id="AuptoA_0" queueing_time="0.00" queueing_length="0.00" queueing_length_experimental="5.11"/>
            <lane id="BtoA_0" queueing_time="0.00" queueing_length="0.00" queueing_length_experimental="134.50"/>
        </lanes>
    </data>
    <data timestep="93.00">
        <lanes>
            <lane id="AuptoA_0" queueing_time="1.00" queueing_length="5.10" queueing_length_experimental="5.10"/>
            <lane id="BtoA_0" queueing_time="0.00" queueing_length="0.00" queueing_length_experimental="142.10"/>
        </lanes>
    </data>
    <data timestep="94.00">
        <lanes>
            <lane id="BtoA_0" queueing_time="1.00" queueing_length="5.15" queueing_length_experimental="141.53"/>
        </lanes>
    </data>
    <data timestep="95.00">
        <lanes>
            <lane id="BtoA_0" queueing_time="0.00" queueing_length="0.00" queueing_length_experimental="149.94"/>
        </lanes>
    </data>
    <data timestep="96.00">
        <lanes>
            <lane id="BtoA_0" queueing_time="0.00" queueing_length="0.00" queueing_length_experimental="149.20"/>
        </lanes>
    </data>
    <data timestep="97.00">
        <lanes>
            <lane id="BtoA_0" queueing_time="0.00" queueing_length="0.00" queueing_length_experimental="148.34"/>
        </lanes>
    </data>
    <data timestep="98.00">
        <lanes>
            <lane id="AuptoA_0" queueing_time="0.00" queueing_length="0.00" queueing_length_experimental="5.12"/>
            <lane id="BtoA_0" queueing_time="0.00" queueing_length="0.00" queueing_length_experimental="155.86"/>
        </lanes>
    </data>
    <data timestep="99.00">
        <lanes>
            <lane id="AuptoA_0" queueing_time="1.00" queueing_length="5.10" queueing_length_experimental="5.10"/>
            <lane id="BtoA_0" queueing_time="0.00" queueing_length="0.00" queueing_length_experimental="155.52"/>
        </lanes>
    </data>
    <data timestep="100.00">
        <lanes>
            <lane id="BtoA_0" queueing_time="0.00" queueing_length="0.00" queueing_length_experimental="163.74"/>
        </lanes>
    </data>
    <data timestep="101.00">
        <lanes>
            <lane id="BtoA_0" queueing_time="1.00" queueing_length="5.11" queueing_length_experimental="152.47"/>
        </lanes>
    </data>
    <data timestep="102.00">
        <lanes>
            <lane id="BtoA_0" queueing_time="0.00" queueing_length="0.00" queueing_length_experimental="160.12"/>
        </lanes>
    </data>
    <data timestep="103.00">
        <lanes>
            <lane id="BtoA_0" queueing_time="0.00" queueing_length="0.00" queueing_length_experimental="159.23"/>
        </lanes>
    </data>
    <data timestep="104.00">
        <lanes>
            <lane id="BtoA_0" queueing_time="0.00" queueing_length="0.00" queueing_length_experimental="167.10"/>
        </lanes>
    </data>
    <data timestep="105.00">
        <lanes>
            <lane id="AuptoA_0" queueing_time="0.00" queueing_length="0.00" queueing_length_experimental="5.42"/>
            <lane id="BtoA_0" queueing_time="0.00" queueing_length="0.00" queueing_length_experimental="165.82"/>
        </lanes>
    </data>
    <data timestep="106.00">
        <lanes>
            <lane id="AuptoA_0" queueing_time="0.00" queueing_length="0.00" queueing_length_experimental="5.16"/>
            <lane id="BtoA_0" queueing_time="0.00" queueing_length="0.00" queueing_length_experimental="155.37"/>
        </lanes>
    </data>
    <data timestep="107.00">
        <lanes>
            <lane id="AuptoA_0" queueing_time="1.00" queueing_length="5.13" queueing_length_experimental="5.13"/>
            <lane id="BtoA_0" queueing_time="0.00" queueing_length="0.00" queueing_length_experimental="172.52"/>
        </lanes>
    </data>
    <data timestep="108.00">
        <lanes>
            <lane id="BtoA_0" queueing_time="1.00" queueing_length="5.11" queueing_length_experimental="180.18"/>
        </lanes>
    </data>
    <data timestep="109.00">
        <lanes>
            <lane id="BtoA_0" queueing_time="1.00" queueing_length="12.61" queueing_length_experimental="169.89"/>
        </lanes>
    </data>
    <data timestep="110.00">
        <lanes>
            <lane id="BtoA_0" queueing_time="1.00" queueing_length="20.12" queueing_length_experimental="177.54"/>
        </lanes>
    </data>
    <data timestep="111.00">
        <lanes>
            <lane id="BtoA_0" queueing_time="1.00" queueing_length="27.64" queueing_length_experimental="176.24"/>
        </lanes>
    </data>
    <data timestep="112.00">
        <lanes>
            <lane id="AuptoA_0" queueing_time="0.00" queueing_length="0.00" queueing_length_experimental="5.12"/>
            <lane id="BtoA_0" queueing_time="0.00" queueing_length="0.00" queueing_length_experimental="184.47"/>
        </lanes>
    </data>
    <data timestep="113.00">
        <lanes>
            <lane id="AuptoA_0" queueing_time="1.00" queueing_length="5.10" queueing_length_experimental="5.10"/>
            <lane id="BtoA_0" queueing_time="0.00" queueing_length="0.00" queueing_length_experimental="192.76"/>
        </lanes>
    </data>
    <data timestep="114.00">
        <lanes>
            <lane id="BtoA_0" queueing_time="1.00" queueing_length="5.12" queueing_length_experimental="191.44"/>
        </lanes>
    </data>
    <data timestep="115.00">
        <lanes>
            <lane id="BtoA_0" queueing_time="0.00" queueing_length="0.00" queueing_length_experimental="190.48"/>
        </lanes>
    </data>
    <data timestep="116.00">
        <lanes>
            <lane id="BtoA_0" queueing_time="0.00" queueing_length="0.00" queueing_length_experimental="170.22"/>
        </lanes>
    </data>
    <data timestep="117.00">
        <lanes>
            <lane id="BtoA_0" queueing_time="0.00" queueing_length="0.00" queueing_length_experimental="196.86"/>
        </lanes>
    </data>
    <data timestep="118.00">
        <lanes>
            <lane id="BtoA_0" queueing_time="0.00" queueing_length="0.00" queueing_length_experimental="195.82"/>
        </lanes>
    </data>
    <data timestep="119.00">
        <lanes>
            <lane id="BtoA_0" queueing_time="0.00" queueing_length="0.00" queueing_length_experimental="194.69"/>
        </lanes>
    </data>
    <data timestep="120.00">
        <lanes>
            <lane id="BtoA_0" queueing_time="1.00" queueing_length="5.14" queueing_length_experimental="202.38"/>
        </lanes>
    </data>
    <data timestep="121.00">
        <lanes>
            <lane id="AuptoA_0" queueing_time="0.00" queueing_length="0.00" queueing_length_experimental="5.31"/>
            <lane id="BtoA_0" queueing_time="0.00" queueing_length="0.00" queueing_length_experimental="192.08"/>
        </lanes>
    </data>
    <data timestep="122.00">
        <lanes>
            <lane id="AuptoA_0" queueing_time="0.00" queueing_length="0.00" queueing_length_experimental="5.19"/>
            <lane id="BtoA_0" queueing_time="0.00" queueing_length="0.00" queueing_length_experimental="200.05"/>
        </lanes>
    </data>
    <data timestep="123.00">
        <lanes>
            <lane id="AuptoA_0" queueing_time="1.00" queueing_length="5.12" queueing_length_experimental="5.12"/>
            <lane id="BtoA_0" queueing_time="0.00" queueing_length="0.00" queueing_length_experimental="168.17"/>
        </lanes>
    </data>
    <data timestep="124.00">
        <lanes>
            <lane id="BtoA_0" queueing_time="0.00" queueing_length="0.00" queueing_length_experimental="175.83"/>
        </lanes>
    </data>
    <data timestep="125.00">
        <lanes>
            <lane id="BtoA_0" queueing_time="0.00" queueing_length="0.00" queueing_length_experimental="193.29"/>
        </lanes>
    </data>
    <data timestep="126.00">
        <lanes>
            <lane id="AuptoA_1" queueing_time="0.00" queueing_length="0.00" queueing_length_experimental="5.17"/>
            <lane id="BtoA_0" queueing_time="0.00" queueing_length="0.00" queueing_length_experimental="173.45"/>
        </lanes>
    </data>
    <data timestep="127.00">
        <lanes>
            <lane id="AuptoA_1" queueing_time="1.00" queueing_length="5.11" queueing_length_experimental="5.11"/>
            <lane id="BtoA_0" queueing_time="1.00" queueing_length="5.10" queueing_length_experimental="181.28"/>
        </lanes>
    </data>
    <data timestep="128.00">
        <lanes>
            <lane id="AuptoA_0" queueing_time="1.00" queueing_length="5.11" queueing_length_experimental="5.11"/>
            <lane id="AuptoA_1" queueing_time="2.00" queueing_length="5.10" queueing_length_experimental="5.10"/>
            <lane id="BtoA_0" queueing_time="1.00" queueing_length="12.62" queueing_length_experimental="189.23"/>
        </lanes>
    </data>
    <data timestep="129.00">
        <lanes>
            <lane id="AuptoA_1" queueing_time="3.00" queueing_length="5.10" queueing_length_experimental="5.10"/>
            <lane id="BtoA_0" queueing_time="0.00" queueing_length="0.00" queueing_length_experimental="197.39"/>
        </lanes>
    </data>
    <data timestep="130.00">
        <lanes>
            <lane id="BtoA_0" queueing_time="0.00" queueing_length="0.00" queueing_length_experimental="196.50"/>
        </lanes>
    </data>
    <data timestep="131.00">
        <lanes>
            <lane id="BtoA_0" queueing_time="0.00" queueing_length="0.00" queueing_length_experimental="195.26"/>
        </lanes>
    </data>
    <data timestep="132.00">
        <lanes>
            <lane id="BtoA_0" queueing_time="0.00" queueing_length="0.00" queueing_length_experimental="194.03"/>
        </lanes>
    </data>
    <data timestep="133.00">
        <lanes>
            <lane id="BtoA_0" queueing_time="0.00" queueing_length="0.00" queueing_length_experimental="154.56"/>
        </lanes>
    </data>
    <data timestep="134.00">
        <lanes>
            <lane id="AuptoA_0" queueing_time="0.00" queueing_length="0.00" queueing_length_experimental="5.49"/>
            <lane id="BtoA_0" queueing_time="1.00" queueing_length="5.13" queueing_length_experimental="191.07"/>
        </lanes>
    </data>
    <data timestep="135.00">
        <lanes>
            <lane id="AuptoA_0" queueing_time="0.00" queueing_length="0.00" queueing_length_experimental="5.16"/>
            <lane id="BtoA_0" queueing_time="0.00" queueing_length="0.00" queueing_length_experimental="199.09"/>
        </lanes>
    </data>
    <data timestep="136.00">
        <lanes>
            <lane id="AuptoA_0" queueing_time="1.00" queueing_length="5.13" queueing_length_experimental="5.13"/>
            <lane id="BtoA_0" queueing_time="0.00" queueing_length="0.00" queueing_length_experimental="187.50"/>
        </lanes>
    </data>
    <data timestep="137.00">
        <lanes>
            <lane id="BtoA_0" queueing_time="0.00" queueing_length="0.00" queueing_length_experimental="195.80"/>
        </lanes>
    </data>
    <data timestep="138.00">
        <lanes>
            <lane id="BtoA_0" queueing_time="0.00" queueing_length="0.00" queueing_length_experimental="175.55"/>
        </lanes>
    </data>